Executable      : siesta
Version         : 5.2.1
Architecture    : x86_64
Compiler version: GNU-13.3.0
Compiler flags  : -march=nocona -mtune=haswell -ftree-vectorize -fPIC -fstack-protector-strong -fno-plt -O2 -ffunction-sections -pipe -isystem <prefix>/include -I<prefix>/_build_env/include -fdebug-prefix-map=<prefix>/work=/usr/local/src/conda/siesta-5.2.1 -fdebug-prefix-map=<prefix>=/usr/local/src/conda-prefix -I<prefix>/lib -fallow-argument-mismatch -O3
Parallelisations: none
NetCDF support
NetCDF-4 support
Lua support
DFT-D3 support

Runtime information:
* Directory : /home/samba/homes/convidat/Desktop/Optimización/Run2
* Running in serial mode.
>> Start of run:  26-MAY-2025  16:52:34

                           *********************** 
                           *  WELCOME TO SIESTA  * 
                           *********************** 

 NOTE: Siesta V5 introduces some new defaults for basis-set generation
 NOTE: which might lead to slightly different numerical results.
 NOTE: Please see the manual for full details and compatibility measures.


reinit: Reading from file optimization.fdf

reinit: -----------------------------------------------------------------------
reinit: System Name: 
reinit: -----------------------------------------------------------------------
reinit: System Label: optimization
reinit: -----------------------------------------------------------------------

initatom: Reading input for the pseudopotentials and atomic orbitals ----------
Species number:   1 Atomic number:    6 Label: C
Species number:   2 Atomic number:    1 Label: H
Species number:   3 Atomic number:   17 Label: Cl

Ground state valence configuration (from tables):   2s02  2p02  3d00  4f00
Ground state valence configuration (from tables):   1s01  2p00  3d00  4f00
Ground state valence configuration (from tables):   3s02  3p05  3d00  4f00

---- Processing specs for species: C
Reading pseudopotential information in PSML from:
  C.psml
PSML file version: 1.1
Using libxc ids:  101 130
GGA--PBE XC_GGA_X_PBE--XC_GGA_C_PBE pb
PSML uuid: 297821e0-be41-11e7-6802-e1ff7dfff095

---- Processing specs for species: H
Reading pseudopotential information in PSML from:
  H.psml
PSML file version: 1.1
Using libxc ids:  101 130
GGA--PBE XC_GGA_X_PBE--XC_GGA_C_PBE pb
PSML uuid: f95fa9b0-be40-11e7-634a-9594ffff953f

---- Processing specs for species: Cl
Reading pseudopotential information in PSML from:
  Cl.psml
PSML file version: 1.1
Using libxc ids:  101 130
GGA--PBE XC_GGA_X_PBE--XC_GGA_C_PBE pb
PSML uuid: 9ab3dd40-be41-11e7-6c4a-ab88bfef78d9

---- Pseudopotential check for C 

Pseudized shells:
2s( 2.00) rc: 1.20
2p( 2.00) rc: 1.26
Valence configuration for ps generation: 2s:2p: Total charge:   4.000000

---- Pseudopotential check for H 

Pseudized shells:
1s( 1.00) rc: 1.01
2p( 0.00) rc: 0.71
Valence configuration for ps generation: 1s: Total charge:   1.000000

---- Pseudopotential check for Cl

Pseudized shells:
3s( 2.00) rc: 1.56
3p( 5.00) rc: 1.35
3d( 0.00) rc: 1.76
Valence configuration for ps generation: 3s:3p: Total charge:   7.000000
For C, standard SIESTA heuristics set lmxkb to 3
 (one more than the basis l, including polarization orbitals).
Use PS.lmax or PS.KBprojectors blocks to override.
For H, standard SIESTA heuristics set lmxkb to 2
 (one more than the basis l, including polarization orbitals).
Use PS.lmax or PS.KBprojectors blocks to override.
For Cl, standard SIESTA heuristics set lmxkb to 3
 (one more than the basis l, including polarization orbitals).
Use PS.lmax or PS.KBprojectors blocks to override.
C pseudopotential only contains V_ls up to l=1 -- lmxkb reset.
H pseudopotential only contains V_ls up to l=1 -- lmxkb reset.
Cl pseudopotential only contains V_ls up to l=2 -- lmxkb reset.

<basis_specs>
===============================================================================
C                    Z=   6    Mass=  12.011        Charge= 0.17977+309
Lmxo=2 Lmxkb= 1    BasisType=split      Semic=F
L=0  Nsemic=0  Cnfigmx=2
          i=1  nzeta=2  polorb=0  (2s)
            splnorm:   0.15000    
               vcte:    40.000    
               rinn:  -0.90000    
               qcoe:    0.0000    
               qyuk:    0.0000    
               qwid:   0.10000E-01
                rcs:    0.0000      0.0000    
            lambdas:    1.0000      1.0000    
L=1  Nsemic=0  Cnfigmx=2
          i=1  nzeta=2  polorb=1  (2p)  (to be polarized perturbatively)
            splnorm:   0.15000    
               vcte:    40.000    
               rinn:  -0.90000    
               qcoe:    0.0000    
               qyuk:    0.0000    
               qwid:   0.10000E-01
                rcs:    0.0000      0.0000    
            lambdas:    1.0000      1.0000    
L=2  Nsemic=0  Cnfigmx=3
          i=1  nzeta=0  polorb=0  (3d)  (perturbative polarization orbital) (from 2p)
-------------------------------------------------------------------------------
L=0  Nkbl=1  erefs: 0.17977+309
L=1  Nkbl=1  erefs: 0.17977+309
===============================================================================
</basis_specs>

Using PAO.SplitTailNorm
atom: Called for C                     (Z =   6)
NOTE: C pseudopotential has channels up to l= 1
NOTE: PAOs with higher l will be generated with V_local
Maximum radius (at nrval) set to   50.00000 8518

read_vps: Pseudopotential generation method:
read_vps: ONCVPSP-3.Hamann's oncvpsp                        
Valence charge in pseudo generation:    4.00000

read_vps: Pseudopotential includes a core correction:
read_vps: Pseudo-core for xc-correction

xc_check: Exchange-correlation functional:
xc_check: GGA Perdew, Burke & Ernzerhof 1996
Got Vlocal (oncv-fit) from psml data
Choosing vlocal chloc cutoff:  4.122282
qtot up to nchloc:    4.00001153
atom: Maximum radius for chlocal:    4.12228
atom: Maximum radius for r*vlocal+2*Zval:    4.12228
Reading KB projs from C psml data
Using scalar-relativistic projectors in PSML file

PSML: Kleinman-Bylander projectors: 
   l= 0   rc=  1.219773   Ekb= 12.963096
   l= 0   rc=  1.219773   Ekb=  0.771007
   l= 1   rc=  1.278952   Ekb= -8.399923
   l= 1   rc=  1.278952   Ekb= -1.755033

PSML: Total number of  Kleinman-Bylander projectors:   8
atom: -------------------------------------------------------------------------

atom: SANKEY-TYPE ORBITALS:
atom: Selected multiple-zeta basis: split     

SPLIT: Orbitals with angular momentum L= 0

SPLIT: Basis orbitals for state 2s

SPLIT: PAO cut-off radius determined from an
SPLIT: energy shift=  0.000735 Ry
Split based on tail norm

   izeta = 1
                 lambda =    1.000000
                     rc =    5.865727
                 energy =   -1.009782
                kinetic =    0.907850
    potential(screened) =   -1.917632
       potential(ionic) =   -5.443189

   izeta = 2
                 rmatch =    3.302919
              splitnorm =    0.150000
                 energy =   -0.812047
                kinetic =    1.580868
    potential(screened) =   -2.392915
       potential(ionic) =   -6.200698

SPLIT: Orbitals with angular momentum L= 1

SPLIT: Basis orbitals for state 2p

SPLIT: PAO cut-off radius determined from an
SPLIT: energy shift=  0.000735 Ry
Split based on tail norm

   izeta = 1
                 lambda =    1.000000
                     rc =    7.564822
                 energy =   -0.387582
                kinetic =    2.372253
    potential(screened) =   -2.759835
       potential(ionic) =   -6.120604

   izeta = 2
                 rmatch =    4.252389
              splitnorm =    0.150000
                 energy =   -0.314961
                kinetic =    3.225377
    potential(screened) =   -3.540338
       potential(ionic) =   -7.207912
*Note: V_local used for l= 2

** Using vlocal for PAOs with L= 2

POLgen: Perturbative polarization orbital with L=  2

POLgen: Polarization orbital for state 2p
*Note: V_local used for lpol= 2

** Using vlocal for PAOs with L= 2
Split based on tail norm

   izeta = 1
                     rc =    7.564822
                 energy =    0.923681
                kinetic =    1.875515
    potential(screened) =   -0.951834
       potential(ionic) =   -3.587740
atom: Total number of Sankey-type orbitals: 13

atm_pop: Valence configuration (for local Pseudopot. screening):
 2s( 2.00)                                                            
 2p( 2.00)                                                            
 3d( 0.00)                                                            
Vna: chval, zval:    4.00000   4.00000

Vna:  Cut-off radius for the neutral-atom potential:   7.564822
comcore: Pseudo-core radius Rcore=  1.671741

atom: _________________________________________________________________________

<basis_specs>
===============================================================================
H                    Z=   1    Mass=  1.0080        Charge= 0.17977+309
Lmxo=1 Lmxkb= 1    BasisType=split      Semic=F
L=0  Nsemic=0  Cnfigmx=1
          i=1  nzeta=2  polorb=1  (1s)  (to be polarized perturbatively)
            splnorm:   0.15000    
               vcte:    40.000    
               rinn:  -0.90000    
               qcoe:    0.0000    
               qyuk:    0.0000    
               qwid:   0.10000E-01
                rcs:    0.0000      0.0000    
            lambdas:    1.0000      1.0000    
L=1  Nsemic=0  Cnfigmx=2
          i=1  nzeta=0  polorb=0  (2p)  (perturbative polarization orbital) (from 1s)
-------------------------------------------------------------------------------
L=0  Nkbl=1  erefs: 0.17977+309
L=1  Nkbl=1  erefs: 0.17977+309
===============================================================================
</basis_specs>

Using PAO.SplitTailNorm
atom: Called for H                     (Z =   1)
Maximum radius (at nrval) set to   50.00000 8518

read_vps: Pseudopotential generation method:
read_vps: ONCVPSP-3.Hamann's oncvpsp                        
Valence charge in pseudo generation:    1.00000

xc_check: Exchange-correlation functional:
xc_check: GGA Perdew, Burke & Ernzerhof 1996
Got Vlocal (oncv-fit) from psml data
Choosing vlocal chloc cutoff:  1.926399
qtot up to nchloc:    0.99999831
atom: Maximum radius for chlocal:    1.92640
atom: Maximum radius for r*vlocal+2*Zval:    1.92640
Reading KB projs from H psml data
Using scalar-relativistic projectors in PSML file

PSML: Kleinman-Bylander projectors: 
   l= 0   rc=  1.022342   Ekb= -3.402247
   l= 0   rc=  1.022342   Ekb= -1.068968
   l= 1   rc=  0.714575   Ekb= -1.006642

PSML: Total number of  Kleinman-Bylander projectors:   5
atom: -------------------------------------------------------------------------

atom: SANKEY-TYPE ORBITALS:
atom: Selected multiple-zeta basis: split     

SPLIT: Orbitals with angular momentum L= 0

SPLIT: Basis orbitals for state 1s

SPLIT: PAO cut-off radius determined from an
SPLIT: energy shift=  0.000735 Ry
Split based on tail norm

   izeta = 1
                 lambda =    1.000000
                     rc =    7.238756
                 energy =   -0.476315
                kinetic =    0.887622
    potential(screened) =   -1.363936
       potential(ionic) =   -1.882865

   izeta = 2
                 rmatch =    4.044510
              splitnorm =    0.150000
                 energy =   -0.376652
                kinetic =    1.480380
    potential(screened) =   -1.857033
       potential(ionic) =   -2.405174

POLgen: Perturbative polarization orbital with L=  1

POLgen: Polarization orbital for state 1s
Split based on tail norm

   izeta = 1
                     rc =    7.238756
                 energy =    0.508786
                kinetic =    1.081322
    potential(screened) =   -0.572537
       potential(ionic) =   -1.035092
atom: Total number of Sankey-type orbitals:  5

atm_pop: Valence configuration (for local Pseudopot. screening):
 1s( 1.00)                                                            
 2p( 0.00)                                                            
Vna: chval, zval:    1.00000   1.00000

Vna:  Cut-off radius for the neutral-atom potential:   7.238756

atom: _________________________________________________________________________

<basis_specs>
===============================================================================
Cl                   Z=  17    Mass=  35.450        Charge= 0.17977+309
Lmxo=2 Lmxkb= 2    BasisType=split      Semic=F
L=0  Nsemic=0  Cnfigmx=3
          i=1  nzeta=2  polorb=0  (3s)
            splnorm:   0.15000    
               vcte:    40.000    
               rinn:  -0.90000    
               qcoe:    0.0000    
               qyuk:    0.0000    
               qwid:   0.10000E-01
                rcs:    0.0000      0.0000    
            lambdas:    1.0000      1.0000    
L=1  Nsemic=0  Cnfigmx=3
          i=1  nzeta=2  polorb=1  (3p)  (to be polarized perturbatively)
            splnorm:   0.15000    
               vcte:    40.000    
               rinn:  -0.90000    
               qcoe:    0.0000    
               qyuk:    0.0000    
               qwid:   0.10000E-01
                rcs:    0.0000      0.0000    
            lambdas:    1.0000      1.0000    
L=2  Nsemic=0  Cnfigmx=3
          i=1  nzeta=0  polorb=0  (3d)  (perturbative polarization orbital) (from 3p)
-------------------------------------------------------------------------------
L=0  Nkbl=1  erefs: 0.17977+309
L=1  Nkbl=1  erefs: 0.17977+309
L=2  Nkbl=1  erefs: 0.17977+309
===============================================================================
</basis_specs>

Using PAO.SplitTailNorm
atom: Called for Cl                    (Z =  17)
Maximum radius (at nrval) set to   50.00000 8518

read_vps: Pseudopotential generation method:
read_vps: ONCVPSP-3.Hamann's oncvpsp                        
Valence charge in pseudo generation:    7.00000

read_vps: Pseudopotential includes a core correction:
read_vps: Pseudo-core for xc-correction

xc_check: Exchange-correlation functional:
xc_check: GGA Perdew, Burke & Ernzerhof 1996
Got Vlocal (oncv-fit) from psml data
Choosing vlocal chloc cutoff:  6.008450
qtot up to nchloc:    7.00001052
atom: Maximum radius for chlocal:    6.00845
atom: Maximum radius for r*vlocal+2*Zval:    6.00845
Reading KB projs from Cl psml data
Using scalar-relativistic projectors in PSML file

PSML: Kleinman-Bylander projectors: 
   l= 0   rc=  1.578563   Ekb= 16.278592
   l= 0   rc=  1.580152   Ekb=  1.397440
   l= 1   rc=  1.368271   Ekb=  7.643426
   l= 1   rc=  1.368271   Ekb=  2.215037
   l= 2   rc=  1.779310   Ekb= -5.877217
   l= 2   rc=  1.779310   Ekb= -1.610911

PSML: Total number of  Kleinman-Bylander projectors:  18
atom: -------------------------------------------------------------------------

atom: SANKEY-TYPE ORBITALS:
atom: Selected multiple-zeta basis: split     

SPLIT: Orbitals with angular momentum L= 0

SPLIT: Basis orbitals for state 3s

SPLIT: PAO cut-off radius determined from an
SPLIT: energy shift=  0.000735 Ry
Split based on tail norm

   izeta = 1
                 lambda =    1.000000
                     rc =    5.243160
                 energy =   -1.519954
                kinetic =    1.090169
    potential(screened) =   -2.610123
       potential(ionic) =   -9.095744

   izeta = 2
                 rmatch =    2.987653
              splitnorm =    0.150000
                 energy =   -1.171269
                kinetic =    2.059164
    potential(screened) =   -3.230433
       potential(ionic) =  -10.120867

SPLIT: Orbitals with angular momentum L= 1

SPLIT: Basis orbitals for state 3p

SPLIT: PAO cut-off radius determined from an
SPLIT: energy shift=  0.000735 Ry
Split based on tail norm

   izeta = 1
                 lambda =    1.000000
                     rc =    6.735191
                 energy =   -0.630837
                kinetic =    1.762148
    potential(screened) =   -2.392985
       potential(ionic) =   -8.420135

   izeta = 2
                 rmatch =    3.846769
              splitnorm =    0.150000
                 energy =   -0.514409
                kinetic =    2.445302
    potential(screened) =   -2.959711
       potential(ionic) =   -9.472263

POLgen: Perturbative polarization orbital with L=  2

POLgen: Polarization orbital for state 3p
Split based on tail norm

   izeta = 1
                     rc =    6.735191
                 energy =    0.542034
                kinetic =    3.182136
    potential(screened) =   -2.640101
       potential(ionic) =   -8.314496
atom: Total number of Sankey-type orbitals: 13

atm_pop: Valence configuration (for local Pseudopot. screening):
 3s( 2.00)                                                            
 3p( 5.00)                                                            
 3d( 0.00)                                                            
Vna: chval, zval:    7.00000   7.00000

Vna:  Cut-off radius for the neutral-atom potential:   6.735191
comcore: Pseudo-core radius Rcore=  2.336277

atom: _________________________________________________________________________

prinput: Basis input 

PAO.BasisType split     

%block ChemicalSpeciesLabel
    1    6 C                       # Species index, atomic number, species label
    2    1 H                       # Species index, atomic number, species label
    3   17 Cl                      # Species index, atomic number, species label
%endblock ChemicalSpeciesLabel

%block PAO.Basis                 # Define Basis set
# WARNING: This information might be incomplete!
C                     2                    # Species label, number of l-shells
 n=2   0   2                         # n, l, Nzeta 
   5.866      3.303   
   1.000      1.000   
 n=2   1   2 P   1                   # n, l, Nzeta, Polarization, NzetaPol
   7.565      4.252   
   1.000      1.000   
H                     1                    # Species label, number of l-shells
 n=1   0   2 P   1                   # n, l, Nzeta, Polarization, NzetaPol
   7.239      4.045   
   1.000      1.000   
Cl                    2                    # Species label, number of l-shells
 n=3   0   2                         # n, l, Nzeta 
   5.243      2.988   
   1.000      1.000   
 n=3   1   2 P   1                   # n, l, Nzeta, Polarization, NzetaPol
   6.735      3.847   
   1.000      1.000   
%endblock PAO.Basis

prinput: ----------------------------------------------------------------------

Dumping basis to NetCDF file C.ion.nc
Dumping basis to NetCDF file H.ion.nc
Dumping basis to NetCDF file Cl.ion.nc
coor:   Atomic-coordinates input format  =     Cartesian coordinates
coor:                                          (in Angstroms)

siesta: Atomic coordinates (Bohr) and species
siesta:      2.32436   1.34171   0.00000  1        1
siesta:      4.08559   2.36027   0.00000  2        2
siesta:      0.00000   2.68341   0.00000  1        3
siesta:      0.00000   4.71865   0.00000  2        4
siesta:     -2.32436   1.34171   0.00000  1        5
siesta:     -4.81204   2.77768   0.00000  3        6
siesta:     -2.32436  -1.34171   0.00000  1        7
siesta:     -4.08559  -2.36027   0.00000  2        8
siesta:      0.00000  -2.68341   0.00000  1        9
siesta:      0.00000  -4.71865   0.00000  2       10
siesta:      2.32436  -1.34171   0.00000  1       11
siesta:      4.08559  -2.36027   0.00000  2       12

siesta: System type = molecule  

initatomlists: Number of atoms, orbitals, and projectors:     12   116    91

coxmol: Writing XMOL coordinates into file optimization.xyz                                                                                                                                                                                                                    

siesta: ******************** Simulation parameters ****************************
siesta:
siesta: The following are some of the parameters of the simulation.
siesta: A complete list of the parameters used, including default values,
siesta: can be found in file out.fdf
siesta:
redata: Spin configuration                          = none
redata: Number of spin components                   = 1
redata: Time-Reversal Symmetry                      = T
redata: Spin spiral                                 = F
redata: Long output                                 =   F
redata: Number of Atomic Species                    =        3
redata: Charge density info will appear in .RHO file
redata: Write Mulliken charges (when)               = none
redata: Write Mulliken Pop.                         = NO
redata: Write Hirshfeld charges (when)              = none
redata: Write Voronoi charges (when)                = none
redata: Write spin charge (when)                    = none
redata: Matel table size (NRTAB)                    =     1024
redata: Mesh Cutoff                                 =   300.0000 Ry
redata: Net charge of the system                    =     0.0000 |e|
redata: Min. number of SCF Iter                     =        0
redata: Max. number of SCF Iter                     =     1000
redata: SCF convergence failure will abort job
redata: SCF mix quantity                            = Hamiltonian
redata: Mix DM or H after convergence               =   F
redata: Recompute H after scf cycle                 =   F
redata: Mix DM in first SCF step                    =   T
redata: Write Pulay info on disk                    =   F
redata: New DM Occupancy tolerance                  = 0.000000000001
redata: No kicks to SCF
redata: DM Mixing Weight for Kicks                  =     0.5000
redata: Require Harris convergence for SCF          =   F
redata: Harris energy tolerance for SCF             =     0.000100 eV
redata: Require DM convergence for SCF              =   T
redata: DM tolerance for SCF                        =     0.000100
redata: Require EDM convergence for SCF             =   F
redata: EDM tolerance for SCF                       =     0.001000 eV
redata: Require H convergence for SCF               =   T
redata: Hamiltonian tolerance for SCF               =     0.001000 eV
redata: Require (free) Energy convergence for SCF   =   F
redata: (free) Energy tolerance for SCF             =     0.000100 eV
redata: Using DFT-D3 dispersion                     =   F
redata: Using Saved Data (generic)                  =   F
redata: Use continuation files for DM               =   T
redata: Neglect nonoverlap interactions             =   F
redata: Method of Calculation                       = Diagonalization
redata: Electronic Temperature                      =   299.9863 K
redata: Fix the spin of the system                  =   F
redata: Max. number of TDED Iter                    =        1
redata: Number of TDED substeps                     =        3
redata: Dynamics option                             = CG coord. optimization
redata: Variable cell                               =   F
redata: Use continuation files for CG               =   F
redata: Max atomic displ per move                   =     0.1058 Ang
redata: Maximum number of optimization moves        =       50
redata: Force tolerance                             =     0.0500 eV/Ang
mix.SCF: Pulay mixing                            = Pulay
mix.SCF:    Variant                              = stable
mix.SCF:    History steps                        = 2
mix.SCF:    Linear mixing weight                 =     0.250000
mix.SCF:    Mixing weight                        =     0.250000
mix.SCF:    SVD condition                        = 0.1000E-07
redata: Save all siesta data in one NC              =   F
redata: ***********************************************************************

%block SCF.Mixers
  Pulay
%endblock SCF.Mixers

%block SCF.Mixer.Pulay
  # Mixing method
  method pulay
  variant stable

  # Mixing options
  weight 0.2500
  weight.linear 0.2500
  history 2
%endblock SCF.Mixer.Pulay

DM_history_depth set to one: no extrapolation allowed by default for geometry relaxation
Size of DM history Fstack: 1
Total number of electrons:    36.000000
Total ionic charge:    36.000000

siesta: k-grid: Number of k-points = 1
siesta: k-point is Gamma-only

diag: Algorithm                                     = D&C
diag: Used triangular part                          = Lower
diag: Absolute tolerance                            =  0.100E-15
diag: Orthogonalization factor                      =  0.100E-05
diag: Memory factor                                 =  1.0000


ts: **************************************************************
ts: Save H and S matrices                           =    F
ts: Save DM and EDM matrices                        =    F
ts: Only save the overlap matrix S                  =    F
ts: **************************************************************

************************ Begin: TS CHECKS AND WARNINGS ************************
************************ End: TS CHECKS AND WARNINGS **************************


                     ====================================
                        Begin CG opt. move =      0
                     ====================================

outcell: Unit cell vectors (Ang):
       14.708424    0.000000    0.000000
        0.000000   14.994000    0.000000
        0.000000    0.000000   10.000000

outcell: Cell vector modules (Ang)   :   14.708424   14.994000   10.000000
outcell: Cell angles (23,13,12) (deg):     90.0000     90.0000     90.0000
outcell: Cell volume (Ang**3)        :   2205.3811
<dSpData1D:S at geom step 0
  <sparsity:sparsity for geom step 0
    nrows_g=116 nrows=116 sparsity=.9970 nnzs=13416, refcount: 7>
  <dData1D:(new from dSpData1D) n=13416, refcount: 1>
refcount: 1>
new_DM -- step:     1
Initializing Density Matrix...

Attempting to read DM from file... Failed...
DM filled with atomic data:
<dSpData2D:DM initialized from atoms
  <sparsity:sparsity for geom step 0
    nrows_g=116 nrows=116 sparsity=.9970 nnzs=13416, refcount: 8>
  <dData2D:DM n=13416 m=1, refcount: 1>
refcount: 1>
No. of atoms with KB's overlaping orbs in proc 0. Max # of overlaps:      12     110

InitMesh: MESH = 160 x 160 x 108 = 2764800
InitMesh: Mesh cutoff (required, used) =   300.000   314.707 Ry
New grid distribution [1]: sub = 2

stepf: Fermi-Dirac step function

siesta: Program's energy decomposition (eV):
siesta: Ebs     =      -346.427456
siesta: Eions   =      2635.484392
siesta: Ena     =       789.515403
siesta: Ekin    =       934.192862
siesta: Enl     =        10.705468
siesta: Eso     =         0.000000
siesta: Edftu   =         0.000000
siesta: DEna    =       -85.186606
siesta: DUscf   =        13.532842
siesta: DUext   =         0.000000
siesta: Ex      =      -484.184834
siesta: Ec      =       -43.247018
siesta: Exc     =      -527.431852
siesta: EbV     =         0.000000
siesta: eta*DQ  =         0.000000
siesta: Emadel  =         0.000000
siesta: Emeta   =         0.000000
siesta: Emolmec =         0.000000
siesta: Ekinion =         0.000000
siesta: Eharris =     -1487.429622
siesta: Etot    =     -1500.156276
siesta: FreeEng =     -1500.156276

        iscf     Eharris(eV)        E_KS(eV)     FreeEng(eV)     dDmax    Ef(eV) dHmax(eV)
   scf:    1    -1487.429622    -1500.156276    -1500.156276  1.972454 -5.959254 10.644075
timer: Routine,Calls,Time,% = IterSCF        1       2.230  19.81
   scf:    2    -1507.449051    -1504.564441    -1504.564441  0.234327 -4.770621  4.285123
   scf:    3    -1505.655035    -1505.283737    -1505.283737  0.173382 -3.669971  1.157706
   scf:    4    -1505.383896    -1505.337545    -1505.337545  0.056109 -3.353297  0.502407
   scf:    5    -1505.367908    -1505.354637    -1505.354637  0.033246 -3.175513  0.177884
   scf:    6    -1505.357766    -1505.356368    -1505.356368  0.005320 -3.142200  0.061814
   scf:    7    -1505.356977    -1505.356692    -1505.356692  0.001445 -3.139933  0.022135
   scf:    8    -1505.356870    -1505.356788    -1505.356788  0.001493 -3.140667  0.006984
   scf:    9    -1505.356820    -1505.356805    -1505.356805  0.000817 -3.141132  0.003536
   scf:   10    -1505.356812    -1505.356809    -1505.356809  0.000467 -3.141172  0.002032
   scf:   11    -1505.356810    -1505.356809    -1505.356809  0.000214 -3.141044  0.001521
   scf:   12    -1505.356809    -1505.356809    -1505.356809  0.000106 -3.140919  0.000888
   scf:   13    -1505.356809    -1505.356809    -1505.356809  0.000044 -3.140858  0.000412

SCF Convergence by DM+H criterion
max |DM_out - DM_in|         :     0.0000439098
max |H_out - H_in|      (eV) :     0.0004117142
SCF cycle converged after 13 iterations

Using DM_out to compute the final energy and forces
No. of atoms with KB's overlaping orbs in proc 0. Max # of overlaps:      12     110

siesta: E_KS(eV) =            -1505.3568

siesta: E_KS - E_eggbox =     -1505.3568

siesta: Atomic forces (eV/Ang):
----------------------------------------
   Tot   -0.001823    0.000683    0.000000
----------------------------------------
   Max    8.807138
   Res    2.376372    sqrt( Sum f_i^2 / 3N )
----------------------------------------
   Max    8.807138    constrained

Stress tensor Voigt[x,y,z,yz,xz,xy] (kbar):      -11.84       -6.62       -0.00       -0.00        0.00        4.51
(Free)E + p*V (eV/cell)    -1496.8810
Target enthalpy (eV/cell)    -1505.3568

                     ====================================
                        Begin CG opt. move =      1
                     ====================================

outcell: Unit cell vectors (Ang):
       14.708424    0.000000    0.000000
        0.000000   14.994000    0.000000
        0.000000    0.000000   10.000000

outcell: Cell vector modules (Ang)   :   14.708424   14.994000   10.000000
outcell: Cell angles (23,13,12) (deg):     90.0000     90.0000     90.0000
outcell: Cell volume (Ang**3)        :   2205.3811
<dSpData1D:S at geom step 1
  <sparsity:sparsity for geom step 1
    nrows_g=116 nrows=116 sparsity=.9978 nnzs=13426, refcount: 7>
  <dData1D:(new from dSpData1D) n=13426, refcount: 1>
refcount: 1>
new_DM -- step:     2
Re-using DM from previous geometries...
Number of DMs in history: 1
 DM extrapolation coefficients: 
1   1.00000
New DM after history re-use:
<dSpData2D:SpM extrapolated using coords
  <sparsity:sparsity for geom step 1
    nrows_g=116 nrows=116 sparsity=.9978 nnzs=13426, refcount: 9>
  <dData2D:(temp array for extrapolation) n=13426 m=1, refcount: 1>
refcount: 1>
No. of atoms with KB's overlaping orbs in proc 0. Max # of overlaps:      12     112

InitMesh: MESH = 160 x 160 x 108 = 2764800
InitMesh: Mesh cutoff (required, used) =   300.000   314.707 Ry
New grid distribution [1]: sub = 2

        iscf     Eharris(eV)        E_KS(eV)     FreeEng(eV)     dDmax    Ef(eV) dHmax(eV)
   scf:    1    -1506.678255    -1506.053519    -1506.053519  0.124897 -3.996839  1.643021
   scf:    2    -1504.840582    -1505.783765    -1505.783765  0.139337 -3.797613  2.551805
   scf:    3    -1506.357902    -1506.208489    -1506.208489  0.090706 -3.784659  0.114636
   scf:    4    -1506.209751    -1506.209179    -1506.209179  0.002488 -3.771028  0.052795
   scf:    5    -1506.209560    -1506.209407    -1506.209407  0.002241 -3.759758  0.010265
   scf:    6    -1506.209432    -1506.209420    -1506.209420  0.001002 -3.759166  0.006897
   scf:    7    -1506.209429    -1506.209425    -1506.209425  0.000842 -3.759542  0.003925
   scf:    8    -1506.209429    -1506.209427    -1506.209427  0.001373 -3.760388  0.000847
   scf:    9    -1506.209427    -1506.209427    -1506.209427  0.000045 -3.760448  0.000573

SCF Convergence by DM+H criterion
max |DM_out - DM_in|         :     0.0000447135
max |H_out - H_in|      (eV) :     0.0005725959
SCF cycle converged after 9 iterations

Using DM_out to compute the final energy and forces
No. of atoms with KB's overlaping orbs in proc 0. Max # of overlaps:      12     112

siesta: E_KS(eV) =            -1506.2094

siesta: Atomic forces (eV/Ang):
----------------------------------------
   Tot   -0.000012    0.001177    0.000000
----------------------------------------
   Max    2.767091
   Res    0.644855    sqrt( Sum f_i^2 / 3N )
----------------------------------------
   Max    2.767091    constrained

Stress tensor Voigt[x,y,z,yz,xz,xy] (kbar):       -7.57       -5.44       -0.00       -0.00        0.00        1.83
(Free)E + p*V (eV/cell)    -1500.2362
Target enthalpy (eV/cell)    -1506.2094

                     ====================================
                        Begin CG opt. move =      2
                     ====================================

outcell: Unit cell vectors (Ang):
       14.708424    0.000000    0.000000
        0.000000   14.994000    0.000000
        0.000000    0.000000   10.000000

outcell: Cell vector modules (Ang)   :   14.708424   14.994000   10.000000
outcell: Cell angles (23,13,12) (deg):     90.0000     90.0000     90.0000
outcell: Cell volume (Ang**3)        :   2205.3811
<dSpData1D:S at geom step 2
  <sparsity:sparsity for geom step 2
    nrows_g=116 nrows=116 sparsity=.9972 nnzs=13418, refcount: 7>
  <dData1D:(new from dSpData1D) n=13418, refcount: 1>
refcount: 1>
new_DM -- step:     3
Re-using DM from previous geometries...
Number of DMs in history: 1
 DM extrapolation coefficients: 
1   1.00000
New DM after history re-use:
<dSpData2D:SpM extrapolated using coords
  <sparsity:sparsity for geom step 2
    nrows_g=116 nrows=116 sparsity=.9972 nnzs=13418, refcount: 9>
  <dData2D:(temp array for extrapolation) n=13418 m=1, refcount: 1>
refcount: 1>
Note: For starting DM, Qtot, Tr[D*S] =         36.00000000         35.90484605
No. of atoms with KB's overlaping orbs in proc 0. Max # of overlaps:      12     112

InitMesh: MESH = 160 x 160 x 108 = 2764800
InitMesh: Mesh cutoff (required, used) =   300.000   314.707 Ry
New grid distribution [1]: sub = 2

        iscf     Eharris(eV)        E_KS(eV)     FreeEng(eV)     dDmax    Ef(eV) dHmax(eV)
   scf:    1    -1505.041566    -1505.347419    -1505.347419  0.173093 -4.499937  2.863696
   scf:    2    -1501.489378    -1504.460377    -1504.460377  0.303722 -3.400444  4.796630
   scf:    3    -1506.254881    -1505.796510    -1505.796510  0.184089 -4.690461  0.171750
   scf:    4    -1505.799489    -1505.798173    -1505.798173  0.004038 -4.695357  0.070321
   scf:    5    -1505.798997    -1505.798659    -1505.798659  0.003229 -4.695397  0.020826
   scf:    6    -1505.798742    -1505.798703    -1505.798703  0.002104 -4.696026  0.012468
   scf:    7    -1505.798730    -1505.798717    -1505.798717  0.001748 -4.697435  0.005911
   scf:    8    -1505.798724    -1505.798721    -1505.798721  0.002169 -4.699653  0.002163
   scf:    9    -1505.798722    -1505.798722    -1505.798722  0.000187 -4.699553  0.001186
   scf:   10    -1505.798722    -1505.798722    -1505.798722  0.000135 -4.699394  0.000263
   scf:   11    -1505.798722    -1505.798722    -1505.798722  0.000010 -4.699342  0.000192

SCF Convergence by DM+H criterion
max |DM_out - DM_in|         :     0.0000095729
max |H_out - H_in|      (eV) :     0.0001922941
SCF cycle converged after 11 iterations

Using DM_out to compute the final energy and forces
No. of atoms with KB's overlaping orbs in proc 0. Max # of overlaps:      12     112

siesta: E_KS(eV) =            -1505.7987

siesta: Atomic forces (eV/Ang):
----------------------------------------
   Tot    0.000311    0.001029   -0.000000
----------------------------------------
   Max    5.641985
   Res    1.619529    sqrt( Sum f_i^2 / 3N )
----------------------------------------
   Max    5.641985    constrained

Stress tensor Voigt[x,y,z,yz,xz,xy] (kbar):       -6.05       -6.13       -0.01        0.00       -0.00       -0.08
(Free)E + p*V (eV/cell)    -1500.2038
Target enthalpy (eV/cell)    -1505.7987

                     ====================================
                        Begin CG opt. move =      3
                     ====================================

outcell: Unit cell vectors (Ang):
       14.708424    0.000000    0.000000
        0.000000   14.994000    0.000000
        0.000000    0.000000   10.000000

outcell: Cell vector modules (Ang)   :   14.708424   14.994000   10.000000
outcell: Cell angles (23,13,12) (deg):     90.0000     90.0000     90.0000
outcell: Cell volume (Ang**3)        :   2205.3811
<dSpData1D:S at geom step 3
  <sparsity:sparsity for geom step 3
    nrows_g=116 nrows=116 sparsity=.9978 nnzs=13426, refcount: 7>
  <dData1D:(new from dSpData1D) n=13426, refcount: 1>
refcount: 1>
new_DM -- step:     4
Re-using DM from previous geometries...
Number of DMs in history: 1
 DM extrapolation coefficients: 
1   1.00000
New DM after history re-use:
<dSpData2D:SpM extrapolated using coords
  <sparsity:sparsity for geom step 3
    nrows_g=116 nrows=116 sparsity=.9978 nnzs=13426, refcount: 9>
  <dData2D:(temp array for extrapolation) n=13426 m=1, refcount: 1>
refcount: 1>
Note: For starting DM, Qtot, Tr[D*S] =         36.00000000         36.06358848
No. of atoms with KB's overlaping orbs in proc 0. Max # of overlaps:      12     112

InitMesh: MESH = 160 x 160 x 108 = 2764800
InitMesh: Mesh cutoff (required, used) =   300.000   314.707 Ry
New grid distribution [1]: sub = 2

        iscf     Eharris(eV)        E_KS(eV)     FreeEng(eV)     dDmax    Ef(eV) dHmax(eV)
   scf:    1    -1505.162043    -1506.087720    -1506.087720  0.107239 -5.455361  1.742714
   scf:    2    -1504.689621    -1505.772716    -1505.772716  0.139929 -3.503024  2.739676
   scf:    3    -1506.431073    -1506.258776    -1506.258776  0.089532 -5.374086  0.063576
   scf:    4    -1506.259965    -1506.259422    -1506.259422  0.002415 -5.379859  0.033655
   scf:    5    -1506.259820    -1506.259663    -1506.259663  0.002800 -5.384959  0.013345
   scf:    6    -1506.259686    -1506.259675    -1506.259675  0.001292 -5.384560  0.008475
   scf:    7    -1506.259686    -1506.259681    -1506.259681  0.002128 -5.383497  0.001534
   scf:    8    -1506.259682    -1506.259682    -1506.259682  0.000134 -5.383284  0.001020
   scf:    9    -1506.259682    -1506.259682    -1506.259682  0.000075 -5.383168  0.000525

SCF Convergence by DM+H criterion
max |DM_out - DM_in|         :     0.0000754320
max |H_out - H_in|      (eV) :     0.0005253377
SCF cycle converged after 9 iterations

Using DM_out to compute the final energy and forces
No. of atoms with KB's overlaping orbs in proc 0. Max # of overlaps:      12     112

siesta: E_KS(eV) =            -1506.2597

siesta: Atomic forces (eV/Ang):
----------------------------------------
   Tot    0.000310    0.001703   -0.000000
----------------------------------------
   Max    1.994082
   Res    0.653041    sqrt( Sum f_i^2 / 3N )
----------------------------------------
   Max    1.994082    constrained

Stress tensor Voigt[x,y,z,yz,xz,xy] (kbar):       -6.56       -5.37       -0.00       -0.00       -0.00        1.02
(Free)E + p*V (eV/cell)    -1500.7817
Target enthalpy (eV/cell)    -1506.2597

cgvc: Finished line minimization    1.  Mean atomic displacement =    0.0860

                     ====================================
                        Begin CG opt. move =      4
                     ====================================

outcell: Unit cell vectors (Ang):
       14.708424    0.000000    0.000000
        0.000000   14.994000    0.000000
        0.000000    0.000000   10.000000

outcell: Cell vector modules (Ang)   :   14.708424   14.994000   10.000000
outcell: Cell angles (23,13,12) (deg):     90.0000     90.0000     90.0000
outcell: Cell volume (Ang**3)        :   2205.3811
<dSpData1D:S at geom step 4
  <sparsity:sparsity for geom step 4
    nrows_g=116 nrows=116 sparsity=.9951 nnzs=13390, refcount: 7>
  <dData1D:(new from dSpData1D) n=13390, refcount: 1>
refcount: 1>
new_DM -- step:     5
Re-using DM from previous geometries...
Number of DMs in history: 1
 DM extrapolation coefficients: 
1   1.00000
New DM after history re-use:
<dSpData2D:SpM extrapolated using coords
  <sparsity:sparsity for geom step 4
    nrows_g=116 nrows=116 sparsity=.9951 nnzs=13390, refcount: 9>
  <dData2D:(temp array for extrapolation) n=13390 m=1, refcount: 1>
refcount: 1>
Note: For starting DM, Qtot, Tr[D*S] =         36.00000000         35.89540556
No. of atoms with KB's overlaping orbs in proc 0. Max # of overlaps:      12     110

InitMesh: MESH = 160 x 160 x 108 = 2764800
InitMesh: Mesh cutoff (required, used) =   300.000   314.707 Ry
New grid distribution [1]: sub = 2

        iscf     Eharris(eV)        E_KS(eV)     FreeEng(eV)     dDmax    Ef(eV) dHmax(eV)
   scf:    1    -1506.794199    -1506.082935    -1506.082935  0.138806 -4.019771  2.566496
   scf:    2    -1500.633695    -1504.554464    -1504.554464  0.141721 -3.290910  6.979619
   scf:    3    -1506.781516    -1506.316200    -1506.316200  0.104905 -3.762666  0.073361
   scf:    4    -1506.317126    -1506.316696    -1506.316696  0.001339 -3.762813  0.045312
   scf:    5    -1506.317133    -1506.316940    -1506.316940  0.001722 -3.764380  0.014302
   scf:    6    -1506.316987    -1506.316965    -1506.316965  0.000677 -3.766047  0.004773
   scf:    7    -1506.316973    -1506.316970    -1506.316970  0.000326 -3.766971  0.001788
   scf:    8    -1506.316971    -1506.316970    -1506.316970  0.000088 -3.767126  0.001356
   scf:    9    -1506.316971    -1506.316971    -1506.316971  0.000074 -3.767127  0.000742

SCF Convergence by DM+H criterion
max |DM_out - DM_in|         :     0.0000740291
max |H_out - H_in|      (eV) :     0.0007422749
SCF cycle converged after 9 iterations

Using DM_out to compute the final energy and forces
No. of atoms with KB's overlaping orbs in proc 0. Max # of overlaps:      12     110

siesta: E_KS(eV) =            -1506.3170

siesta: Atomic forces (eV/Ang):
----------------------------------------
   Tot    0.000295   -0.002614    0.000000
----------------------------------------
   Max    2.774532
   Res    0.743464    sqrt( Sum f_i^2 / 3N )
----------------------------------------
   Max    2.774532    constrained

Stress tensor Voigt[x,y,z,yz,xz,xy] (kbar):       -1.35       -0.38       -0.01       -0.00       -0.00        0.81
(Free)E + p*V (eV/cell)    -1505.5200
Target enthalpy (eV/cell)    -1506.3170

                     ====================================
                        Begin CG opt. move =      5
                     ====================================

outcell: Unit cell vectors (Ang):
       14.708424    0.000000    0.000000
        0.000000   14.994000    0.000000
        0.000000    0.000000   10.000000

outcell: Cell vector modules (Ang)   :   14.708424   14.994000   10.000000
outcell: Cell angles (23,13,12) (deg):     90.0000     90.0000     90.0000
outcell: Cell volume (Ang**3)        :   2205.3811
<dSpData1D:S at geom step 5
  <sparsity:sparsity for geom step 5
    nrows_g=116 nrows=116 sparsity=.9967 nnzs=13412, refcount: 7>
  <dData1D:(new from dSpData1D) n=13412, refcount: 1>
refcount: 1>
new_DM -- step:     6
Re-using DM from previous geometries...
Number of DMs in history: 1
 DM extrapolation coefficients: 
1   1.00000
New DM after history re-use:
<dSpData2D:SpM extrapolated using coords
  <sparsity:sparsity for geom step 5
    nrows_g=116 nrows=116 sparsity=.9967 nnzs=13412, refcount: 9>
  <dData2D:(temp array for extrapolation) n=13412 m=1, refcount: 1>
refcount: 1>
Note: For starting DM, Qtot, Tr[D*S] =         36.00000000         36.04841452
No. of atoms with KB's overlaping orbs in proc 0. Max # of overlaps:      12     112

InitMesh: MESH = 160 x 160 x 108 = 2764800
InitMesh: Mesh cutoff (required, used) =   300.000   314.707 Ry
New grid distribution [1]: sub = 2

        iscf     Eharris(eV)        E_KS(eV)     FreeEng(eV)     dDmax    Ef(eV) dHmax(eV)
   scf:    1    -1505.802975    -1506.362146    -1506.362146  0.045770 -3.459319  1.070652
   scf:    2    -1505.434926    -1506.103587    -1506.103587  0.056857 -3.885609  2.860248
   scf:    3    -1506.482329    -1506.403322    -1506.403322  0.041832 -3.568415  0.030314
   scf:    4    -1506.403466    -1506.403400    -1506.403400  0.000580 -3.568815  0.018233
   scf:    5    -1506.403462    -1506.403435    -1506.403435  0.000665 -3.567888  0.005853
   scf:    6    -1506.403443    -1506.403439    -1506.403439  0.000284 -3.567020  0.002298
   scf:    7    -1506.403441    -1506.403440    -1506.403440  0.000138 -3.566571  0.000684
   scf:    8    -1506.403440    -1506.403440    -1506.403440  0.000032 -3.566515  0.000525

SCF Convergence by DM+H criterion
max |DM_out - DM_in|         :     0.0000318997
max |H_out - H_in|      (eV) :     0.0005248790
SCF cycle converged after 8 iterations

Using DM_out to compute the final energy and forces
No. of atoms with KB's overlaping orbs in proc 0. Max # of overlaps:      12     112

siesta: E_KS(eV) =            -1506.4034

siesta: Atomic forces (eV/Ang):
----------------------------------------
   Tot   -0.000158    0.001836    0.000000
----------------------------------------
   Max    1.232102
   Res    0.393233    sqrt( Sum f_i^2 / 3N )
----------------------------------------
   Max    1.232102    constrained

Stress tensor Voigt[x,y,z,yz,xz,xy] (kbar):       -3.30       -2.16       -0.01        0.00        0.00        0.97
(Free)E + p*V (eV/cell)    -1503.8957
Target enthalpy (eV/cell)    -1506.4034

cgvc: Finished line minimization    2.  Mean atomic displacement =    0.0511

                     ====================================
                        Begin CG opt. move =      6
                     ====================================

outcell: Unit cell vectors (Ang):
       14.708424    0.000000    0.000000
        0.000000   14.994000    0.000000
        0.000000    0.000000   10.000000

outcell: Cell vector modules (Ang)   :   14.708424   14.994000   10.000000
outcell: Cell angles (23,13,12) (deg):     90.0000     90.0000     90.0000
outcell: Cell volume (Ang**3)        :   2205.3811
<dSpData1D:S at geom step 6
  <sparsity:sparsity for geom step 6
    nrows_g=116 nrows=116 sparsity=.9951 nnzs=13390, refcount: 7>
  <dData1D:(new from dSpData1D) n=13390, refcount: 1>
refcount: 1>
new_DM -- step:     7
Re-using DM from previous geometries...
Number of DMs in history: 1
 DM extrapolation coefficients: 
1   1.00000
New DM after history re-use:
<dSpData2D:SpM extrapolated using coords
  <sparsity:sparsity for geom step 6
    nrows_g=116 nrows=116 sparsity=.9951 nnzs=13390, refcount: 9>
  <dData2D:(temp array for extrapolation) n=13390 m=1, refcount: 1>
refcount: 1>
Note: For starting DM, Qtot, Tr[D*S] =         36.00000000         35.91976216
No. of atoms with KB's overlaping orbs in proc 0. Max # of overlaps:      12     110

InitMesh: MESH = 160 x 160 x 108 = 2764800
InitMesh: Mesh cutoff (required, used) =   300.000   314.707 Ry
New grid distribution [1]: sub = 2

        iscf     Eharris(eV)        E_KS(eV)     FreeEng(eV)     dDmax    Ef(eV) dHmax(eV)
   scf:    1    -1507.025069    -1506.420820    -1506.420820  0.059878 -3.954477  0.427776
   scf:    2    -1506.192937    -1506.365321    -1506.365321  0.052221 -4.060259  0.895282
   scf:    3    -1506.467738    -1506.442535    -1506.442535  0.031350 -3.996609  0.045444
   scf:    4    -1506.442819    -1506.442685    -1506.442685  0.001357 -4.002146  0.029648
   scf:    5    -1506.442818    -1506.442764    -1506.442764  0.001318 -4.008670  0.004500
   scf:    6    -1506.442767    -1506.442766    -1506.442766  0.000277 -4.008566  0.002081
   scf:    7    -1506.442767    -1506.442766    -1506.442766  0.000273 -4.008391  0.001084
   scf:    8    -1506.442767    -1506.442766    -1506.442766  0.000184 -4.008276  0.000522
   scf:    9    -1506.442767    -1506.442766    -1506.442766  0.000109 -4.008217  0.000315
   scf:   10    -1506.442766    -1506.442766    -1506.442766  0.000015 -4.008209  0.000221

SCF Convergence by DM+H criterion
max |DM_out - DM_in|         :     0.0000154043
max |H_out - H_in|      (eV) :     0.0002206385
SCF cycle converged after 10 iterations

Using DM_out to compute the final energy and forces
No. of atoms with KB's overlaping orbs in proc 0. Max # of overlaps:      12     110

siesta: E_KS(eV) =            -1506.4428

siesta: Atomic forces (eV/Ang):
----------------------------------------
   Tot    0.002127   -0.002108    0.000000
----------------------------------------
   Max    1.194760
   Res    0.372366    sqrt( Sum f_i^2 / 3N )
----------------------------------------
   Max    1.194760    constrained

Stress tensor Voigt[x,y,z,yz,xz,xy] (kbar):        0.54        0.47       -0.01       -0.00       -0.00       -0.05
(Free)E + p*V (eV/cell)    -1506.9040
Target enthalpy (eV/cell)    -1506.4428

                     ====================================
                        Begin CG opt. move =      7
                     ====================================

outcell: Unit cell vectors (Ang):
       14.708424    0.000000    0.000000
        0.000000   14.994000    0.000000
        0.000000    0.000000   10.000000

outcell: Cell vector modules (Ang)   :   14.708424   14.994000   10.000000
outcell: Cell angles (23,13,12) (deg):     90.0000     90.0000     90.0000
outcell: Cell volume (Ang**3)        :   2205.3811
<dSpData1D:S at geom step 7
  <sparsity:sparsity for geom step 7
    nrows_g=116 nrows=116 sparsity=.9951 nnzs=13390, refcount: 7>
  <dData1D:(new from dSpData1D) n=13390, refcount: 1>
refcount: 1>
new_DM -- step:     8
Re-using DM from previous geometries...
Number of DMs in history: 1
 DM extrapolation coefficients: 
1   1.00000
New DM after history re-use:
<dSpData2D:SpM extrapolated using coords
  <sparsity:sparsity for geom step 7
    nrows_g=116 nrows=116 sparsity=.9951 nnzs=13390, refcount: 9>
  <dData2D:(temp array for extrapolation) n=13390 m=1, refcount: 1>
refcount: 1>
No. of atoms with KB's overlaping orbs in proc 0. Max # of overlaps:      12     110

InitMesh: MESH = 160 x 160 x 108 = 2764800
InitMesh: Mesh cutoff (required, used) =   300.000   314.707 Ry
New grid distribution [1]: sub = 2

        iscf     Eharris(eV)        E_KS(eV)     FreeEng(eV)     dDmax    Ef(eV) dHmax(eV)
   scf:    1    -1506.236702    -1506.456547    -1506.456547  0.018677 -3.876571  0.157233
   scf:    2    -1506.429934    -1506.450134    -1506.450134  0.019039 -3.844809  0.306822
   scf:    3    -1506.462177    -1506.459179    -1506.459179  0.011445 -3.860080  0.015422
   scf:    4    -1506.459212    -1506.459196    -1506.459196  0.000482 -3.858146  0.010061
   scf:    5    -1506.459212    -1506.459206    -1506.459206  0.000489 -3.855724  0.001616
   scf:    6    -1506.459206    -1506.459206    -1506.459206  0.000106 -3.855788  0.000747
   scf:    7    -1506.459206    -1506.459206    -1506.459206  0.000103 -3.855861  0.000368
   scf:    8    -1506.459206    -1506.459206    -1506.459206  0.000066 -3.855903  0.000168

SCF Convergence by DM+H criterion
max |DM_out - DM_in|         :     0.0000661770
max |H_out - H_in|      (eV) :     0.0001682810
SCF cycle converged after 8 iterations

Using DM_out to compute the final energy and forces
No. of atoms with KB's overlaping orbs in proc 0. Max # of overlaps:      12     110

siesta: E_KS(eV) =            -1506.4592

siesta: Atomic forces (eV/Ang):
----------------------------------------
   Tot    0.002204   -0.000761   -0.000000
----------------------------------------
   Max    0.665771
   Res    0.225476    sqrt( Sum f_i^2 / 3N )
----------------------------------------
   Max    0.665771    constrained

Stress tensor Voigt[x,y,z,yz,xz,xy] (kbar):       -0.71       -0.40       -0.01        0.00       -0.00        0.27
(Free)E + p*V (eV/cell)    -1505.9437
Target enthalpy (eV/cell)    -1506.4592

cgvc: Finished line minimization    3.  Mean atomic displacement =    0.0336

                     ====================================
                        Begin CG opt. move =      8
                     ====================================

outcell: Unit cell vectors (Ang):
       14.708424    0.000000    0.000000
        0.000000   14.994000    0.000000
        0.000000    0.000000   10.000000

outcell: Cell vector modules (Ang)   :   14.708424   14.994000   10.000000
outcell: Cell angles (23,13,12) (deg):     90.0000     90.0000     90.0000
outcell: Cell volume (Ang**3)        :   2205.3811
<dSpData1D:S at geom step 8
  <sparsity:sparsity for geom step 8
    nrows_g=116 nrows=116 sparsity=.9951 nnzs=13390, refcount: 7>
  <dData1D:(new from dSpData1D) n=13390, refcount: 1>
refcount: 1>
new_DM -- step:     9
Re-using DM from previous geometries...
Number of DMs in history: 1
 DM extrapolation coefficients: 
1   1.00000
New DM after history re-use:
<dSpData2D:SpM extrapolated using coords
  <sparsity:sparsity for geom step 8
    nrows_g=116 nrows=116 sparsity=.9951 nnzs=13390, refcount: 9>
  <dData2D:(temp array for extrapolation) n=13390 m=1, refcount: 1>
refcount: 1>
Note: For starting DM, Qtot, Tr[D*S] =         36.00000000         35.94670629
No. of atoms with KB's overlaping orbs in proc 0. Max # of overlaps:      12     110

InitMesh: MESH = 160 x 160 x 108 = 2764800
InitMesh: Mesh cutoff (required, used) =   300.000   314.707 Ry
New grid distribution [1]: sub = 2

        iscf     Eharris(eV)        E_KS(eV)     FreeEng(eV)     dDmax    Ef(eV) dHmax(eV)
   scf:    1    -1506.500671    -1506.413344    -1506.413344  0.033968 -3.717181  0.855784
   scf:    2    -1505.790859    -1506.243537    -1506.243537  0.077893 -4.256039  2.157564
   scf:    3    -1506.501012    -1506.447022    -1506.447022  0.051092 -3.881754  0.084508
   scf:    4    -1506.447507    -1506.447289    -1506.447289  0.002013 -3.893406  0.035509
   scf:    5    -1506.447417    -1506.447368    -1506.447368  0.000999 -3.902192  0.006954
   scf:    6    -1506.447374    -1506.447371    -1506.447371  0.000378 -3.902251  0.004584
   scf:    7    -1506.447374    -1506.447373    -1506.447373  0.000618 -3.902226  0.000648
   scf:    8    -1506.447373    -1506.447373    -1506.447373  0.000084 -3.902194  0.000358

SCF Convergence by DM+H criterion
max |DM_out - DM_in|         :     0.0000838847
max |H_out - H_in|      (eV) :     0.0003580750
SCF cycle converged after 8 iterations

Using DM_out to compute the final energy and forces
No. of atoms with KB's overlaping orbs in proc 0. Max # of overlaps:      12     110

siesta: E_KS(eV) =            -1506.4474

siesta: Atomic forces (eV/Ang):
----------------------------------------
   Tot    0.000692    0.003139   -0.000000
----------------------------------------
   Max    1.123552
   Res    0.360037    sqrt( Sum f_i^2 / 3N )
----------------------------------------
   Max    1.123552    constrained

Stress tensor Voigt[x,y,z,yz,xz,xy] (kbar):        0.34        0.91       -0.01       -0.00       -0.00        0.46
(Free)E + p*V (eV/cell)    -1507.0171
Target enthalpy (eV/cell)    -1506.4474

                     ====================================
                        Begin CG opt. move =      9
                     ====================================

outcell: Unit cell vectors (Ang):
       14.708424    0.000000    0.000000
        0.000000   14.994000    0.000000
        0.000000    0.000000   10.000000

outcell: Cell vector modules (Ang)   :   14.708424   14.994000   10.000000
outcell: Cell angles (23,13,12) (deg):     90.0000     90.0000     90.0000
outcell: Cell volume (Ang**3)        :   2205.3811
<dSpData1D:S at geom step 9
  <sparsity:sparsity for geom step 9
    nrows_g=116 nrows=116 sparsity=.9951 nnzs=13390, refcount: 7>
  <dData1D:(new from dSpData1D) n=13390, refcount: 1>
refcount: 1>
new_DM -- step:    10
Re-using DM from previous geometries...
Number of DMs in history: 1
 DM extrapolation coefficients: 
1   1.00000
New DM after history re-use:
<dSpData2D:SpM extrapolated using coords
  <sparsity:sparsity for geom step 9
    nrows_g=116 nrows=116 sparsity=.9951 nnzs=13390, refcount: 9>
  <dData2D:(temp array for extrapolation) n=13390 m=1, refcount: 1>
refcount: 1>
No. of atoms with KB's overlaping orbs in proc 0. Max # of overlaps:      12     110

InitMesh: MESH = 160 x 160 x 108 = 2764800
InitMesh: Mesh cutoff (required, used) =   300.000   314.707 Ry
New grid distribution [1]: sub = 2

        iscf     Eharris(eV)        E_KS(eV)     FreeEng(eV)     dDmax    Ef(eV) dHmax(eV)
   scf:    1    -1506.351481    -1506.463123    -1506.463123  0.018424 -3.983314  0.486629
   scf:    2    -1506.259756    -1506.407557    -1506.407557  0.044741 -3.692675  1.225539
   scf:    3    -1506.491583    -1506.474007    -1506.474007  0.029770 -3.886824  0.049573
   scf:    4    -1506.474168    -1506.474095    -1506.474095  0.001212 -3.879974  0.020817
   scf:    5    -1506.474138    -1506.474122    -1506.474122  0.000608 -3.874775  0.003869
   scf:    6    -1506.474124    -1506.474123    -1506.474123  0.000219 -3.874735  0.002566
   scf:    7    -1506.474124    -1506.474123    -1506.474123  0.000357 -3.874736  0.000361
   scf:    8    -1506.474123    -1506.474123    -1506.474123  0.000047 -3.874753  0.000197

SCF Convergence by DM+H criterion
max |DM_out - DM_in|         :     0.0000468086
max |H_out - H_in|      (eV) :     0.0001973967
SCF cycle converged after 8 iterations

Using DM_out to compute the final energy and forces
No. of atoms with KB's overlaping orbs in proc 0. Max # of overlaps:      12     110

siesta: E_KS(eV) =            -1506.4741

siesta: Atomic forces (eV/Ang):
----------------------------------------
   Tot    0.002043    0.001966   -0.000000
----------------------------------------
   Max    0.246679
   Res    0.107676    sqrt( Sum f_i^2 / 3N )
----------------------------------------
   Max    0.246679    constrained

Stress tensor Voigt[x,y,z,yz,xz,xy] (kbar):       -0.23        0.21       -0.01        0.00        0.00        0.37
(Free)E + p*V (eV/cell)    -1506.4601
Target enthalpy (eV/cell)    -1506.4741

cgvc: Finished line minimization    4.  Mean atomic displacement =    0.0149

                     ====================================
                        Begin CG opt. move =     10
                     ====================================

outcell: Unit cell vectors (Ang):
       14.708424    0.000000    0.000000
        0.000000   14.994000    0.000000
        0.000000    0.000000   10.000000

outcell: Cell vector modules (Ang)   :   14.708424   14.994000   10.000000
outcell: Cell angles (23,13,12) (deg):     90.0000     90.0000     90.0000
outcell: Cell volume (Ang**3)        :   2205.3811
<dSpData1D:S at geom step 10
  <sparsity:sparsity for geom step 10
    nrows_g=116 nrows=116 sparsity=.9951 nnzs=13390, refcount: 7>
  <dData1D:(new from dSpData1D) n=13390, refcount: 1>
refcount: 1>
new_DM -- step:    11
Re-using DM from previous geometries...
Number of DMs in history: 1
 DM extrapolation coefficients: 
1   1.00000
New DM after history re-use:
<dSpData2D:SpM extrapolated using coords
  <sparsity:sparsity for geom step 10
    nrows_g=116 nrows=116 sparsity=.9951 nnzs=13390, refcount: 9>
  <dData2D:(temp array for extrapolation) n=13390 m=1, refcount: 1>
refcount: 1>
No. of atoms with KB's overlaping orbs in proc 0. Max # of overlaps:      12     110

InitMesh: MESH = 160 x 160 x 108 = 2764800
InitMesh: Mesh cutoff (required, used) =   300.000   314.707 Ry
New grid distribution [1]: sub = 2

        iscf     Eharris(eV)        E_KS(eV)     FreeEng(eV)     dDmax    Ef(eV) dHmax(eV)
   scf:    1    -1506.502617    -1506.463274    -1506.463274  0.014120 -4.027019  0.473574
   scf:    2    -1506.252707    -1506.404859    -1506.404859  0.019279 -4.147642  1.192045
   scf:    3    -1506.491244    -1506.473133    -1506.473133  0.014120 -4.053387  0.018631
   scf:    4    -1506.473186    -1506.473162    -1506.473162  0.000311 -4.053385  0.011086
   scf:    5    -1506.473180    -1506.473172    -1506.473172  0.000222 -4.053846  0.003862
   scf:    6    -1506.473174    -1506.473173    -1506.473173  0.000126 -4.054135  0.001227
   scf:    7    -1506.473174    -1506.473174    -1506.473174  0.000086 -4.054275  0.000307

SCF Convergence by DM+H criterion
max |DM_out - DM_in|         :     0.0000857593
max |H_out - H_in|      (eV) :     0.0003073644
SCF cycle converged after 7 iterations

Using DM_out to compute the final energy and forces
No. of atoms with KB's overlaping orbs in proc 0. Max # of overlaps:      12     110

siesta: E_KS(eV) =            -1506.4732

siesta: Atomic forces (eV/Ang):
----------------------------------------
   Tot    0.001682    0.000535   -0.000000
----------------------------------------
   Max    0.472889
   Res    0.137827    sqrt( Sum f_i^2 / 3N )
----------------------------------------
   Max    0.472889    constrained

Stress tensor Voigt[x,y,z,yz,xz,xy] (kbar):        0.40        0.40       -0.01        0.00       -0.00        0.02
(Free)E + p*V (eV/cell)    -1506.8343
Target enthalpy (eV/cell)    -1506.4732

                     ====================================
                        Begin CG opt. move =     11
                     ====================================

outcell: Unit cell vectors (Ang):
       14.708424    0.000000    0.000000
        0.000000   14.994000    0.000000
        0.000000    0.000000   10.000000

outcell: Cell vector modules (Ang)   :   14.708424   14.994000   10.000000
outcell: Cell angles (23,13,12) (deg):     90.0000     90.0000     90.0000
outcell: Cell volume (Ang**3)        :   2205.3811
<dSpData1D:S at geom step 11
  <sparsity:sparsity for geom step 11
    nrows_g=116 nrows=116 sparsity=.9951 nnzs=13390, refcount: 7>
  <dData1D:(new from dSpData1D) n=13390, refcount: 1>
refcount: 1>
new_DM -- step:    12
Re-using DM from previous geometries...
Number of DMs in history: 1
 DM extrapolation coefficients: 
1   1.00000
New DM after history re-use:
<dSpData2D:SpM extrapolated using coords
  <sparsity:sparsity for geom step 11
    nrows_g=116 nrows=116 sparsity=.9951 nnzs=13390, refcount: 9>
  <dData2D:(temp array for extrapolation) n=13390 m=1, refcount: 1>
refcount: 1>
No. of atoms with KB's overlaping orbs in proc 0. Max # of overlaps:      12     110

InitMesh: MESH = 160 x 160 x 108 = 2764800
InitMesh: Mesh cutoff (required, used) =   300.000   314.707 Ry
New grid distribution [1]: sub = 2

        iscf     Eharris(eV)        E_KS(eV)     FreeEng(eV)     dDmax    Ef(eV) dHmax(eV)
   scf:    1    -1506.436296    -1506.474701    -1506.474701  0.007429 -3.974542  0.252926
   scf:    2    -1506.414850    -1506.458110    -1506.458110  0.010548 -3.917335  0.635651
   scf:    3    -1506.482669    -1506.477518    -1506.477518  0.007732 -3.959696  0.009896
   scf:    4    -1506.477533    -1506.477526    -1506.477526  0.000167 -3.959677  0.005847
   scf:    5    -1506.477531    -1506.477529    -1506.477529  0.000117 -3.959414  0.002073
   scf:    6    -1506.477529    -1506.477529    -1506.477529  0.000066 -3.959247  0.000644

SCF Convergence by DM+H criterion
max |DM_out - DM_in|         :     0.0000664942
max |H_out - H_in|      (eV) :     0.0006439978
SCF cycle converged after 6 iterations

Using DM_out to compute the final energy and forces
No. of atoms with KB's overlaping orbs in proc 0. Max # of overlaps:      12     110

siesta: E_KS(eV) =            -1506.4775

siesta: Atomic forces (eV/Ang):
----------------------------------------
   Tot    0.002305    0.000028   -0.000000
----------------------------------------
   Max    0.126925
   Res    0.042544    sqrt( Sum f_i^2 / 3N )
----------------------------------------
   Max    0.126925    constrained

Stress tensor Voigt[x,y,z,yz,xz,xy] (kbar):        0.07        0.30       -0.01       -0.00        0.00        0.20
(Free)E + p*V (eV/cell)    -1506.6455
Target enthalpy (eV/cell)    -1506.4775

cgvc: Finished line minimization    5.  Mean atomic displacement =    0.0070

                     ====================================
                        Begin CG opt. move =     12
                     ====================================

outcell: Unit cell vectors (Ang):
       14.708424    0.000000    0.000000
        0.000000   14.994000    0.000000
        0.000000    0.000000   10.000000

outcell: Cell vector modules (Ang)   :   14.708424   14.994000   10.000000
outcell: Cell angles (23,13,12) (deg):     90.0000     90.0000     90.0000
outcell: Cell volume (Ang**3)        :   2205.3811
<dSpData1D:S at geom step 12
  <sparsity:sparsity for geom step 12
    nrows_g=116 nrows=116 sparsity=.9951 nnzs=13390, refcount: 7>
  <dData1D:(new from dSpData1D) n=13390, refcount: 1>
refcount: 1>
new_DM -- step:    13
Re-using DM from previous geometries...
Number of DMs in history: 1
 DM extrapolation coefficients: 
1   1.00000
New DM after history re-use:
<dSpData2D:SpM extrapolated using coords
  <sparsity:sparsity for geom step 12
    nrows_g=116 nrows=116 sparsity=.9951 nnzs=13390, refcount: 9>
  <dData2D:(temp array for extrapolation) n=13390 m=1, refcount: 1>
refcount: 1>
No. of atoms with KB's overlaping orbs in proc 0. Max # of overlaps:      12     110

InitMesh: MESH = 160 x 160 x 108 = 2764800
InitMesh: Mesh cutoff (required, used) =   300.000   314.707 Ry
New grid distribution [1]: sub = 2

        iscf     Eharris(eV)        E_KS(eV)     FreeEng(eV)     dDmax    Ef(eV) dHmax(eV)
   scf:    1    -1506.458692    -1506.475963    -1506.475963  0.007031 -3.956689  0.076692
   scf:    2    -1506.470195    -1506.474552    -1506.474552  0.003700 -3.940743  0.150419
   scf:    3    -1506.477168    -1506.476499    -1506.476499  0.002414 -3.950705  0.008481
   scf:    4    -1506.476506    -1506.476503    -1506.476503  0.000097 -3.950470  0.005225
   scf:    5    -1506.476506    -1506.476505    -1506.476505  0.000148 -3.950189  0.000556
   scf:    6    -1506.476505    -1506.476505    -1506.476505  0.000011 -3.950203  0.000319

SCF Convergence by DM+H criterion
max |DM_out - DM_in|         :     0.0000114268
max |H_out - H_in|      (eV) :     0.0003193604
SCF cycle converged after 6 iterations

Using DM_out to compute the final energy and forces
No. of atoms with KB's overlaping orbs in proc 0. Max # of overlaps:      12     110

siesta: E_KS(eV) =            -1506.4765

siesta: Atomic forces (eV/Ang):
----------------------------------------
   Tot    0.001483   -0.002109   -0.000000
----------------------------------------
   Max    0.375335
   Res    0.108012    sqrt( Sum f_i^2 / 3N )
----------------------------------------
   Max    0.375335    constrained

Stress tensor Voigt[x,y,z,yz,xz,xy] (kbar):       -0.04        0.22       -0.01       -0.00        0.00        0.22
(Free)E + p*V (eV/cell)    -1506.5592
Target enthalpy (eV/cell)    -1506.4765

                     ====================================
                        Begin CG opt. move =     13
                     ====================================

outcell: Unit cell vectors (Ang):
       14.708424    0.000000    0.000000
        0.000000   14.994000    0.000000
        0.000000    0.000000   10.000000

outcell: Cell vector modules (Ang)   :   14.708424   14.994000   10.000000
outcell: Cell angles (23,13,12) (deg):     90.0000     90.0000     90.0000
outcell: Cell volume (Ang**3)        :   2205.3811
<dSpData1D:S at geom step 13
  <sparsity:sparsity for geom step 13
    nrows_g=116 nrows=116 sparsity=.9951 nnzs=13390, refcount: 7>
  <dData1D:(new from dSpData1D) n=13390, refcount: 1>
refcount: 1>
new_DM -- step:    14
Re-using DM from previous geometries...
Number of DMs in history: 1
 DM extrapolation coefficients: 
1   1.00000
New DM after history re-use:
<dSpData2D:SpM extrapolated using coords
  <sparsity:sparsity for geom step 13
    nrows_g=116 nrows=116 sparsity=.9951 nnzs=13390, refcount: 9>
  <dData2D:(temp array for extrapolation) n=13390 m=1, refcount: 1>
refcount: 1>
No. of atoms with KB's overlaping orbs in proc 0. Max # of overlaps:      12     110

InitMesh: MESH = 160 x 160 x 108 = 2764800
InitMesh: Mesh cutoff (required, used) =   300.000   314.707 Ry
New grid distribution [1]: sub = 2

        iscf     Eharris(eV)        E_KS(eV)     FreeEng(eV)     dDmax    Ef(eV) dHmax(eV)
   scf:    1    -1506.487657    -1506.477925    -1506.477925  0.004411 -3.951801  0.048084
   scf:    2    -1506.475715    -1506.477386    -1506.477386  0.002309 -3.961513  0.093818
   scf:    3    -1506.478389    -1506.478133    -1506.478133  0.001508 -3.955435  0.005348
   scf:    4    -1506.478135    -1506.478134    -1506.478134  0.000061 -3.955578  0.003298
   scf:    5    -1506.478135    -1506.478135    -1506.478135  0.000093 -3.955752  0.000342

SCF Convergence by DM+H criterion
max |DM_out - DM_in|         :     0.0000934564
max |H_out - H_in|      (eV) :     0.0003419638
SCF cycle converged after 5 iterations

Using DM_out to compute the final energy and forces
No. of atoms with KB's overlaping orbs in proc 0. Max # of overlaps:      12     110

siesta: E_KS(eV) =            -1506.4781

siesta: Atomic forces (eV/Ang):
----------------------------------------
   Tot    0.001979   -0.000537    0.000000
----------------------------------------
   Max    0.106646
   Res    0.030969    sqrt( Sum f_i^2 / 3N )
----------------------------------------
   Max    0.106646    constrained

Stress tensor Voigt[x,y,z,yz,xz,xy] (kbar):        0.03        0.27       -0.01       -0.00        0.00        0.21
(Free)E + p*V (eV/cell)    -1506.6147
Target enthalpy (eV/cell)    -1506.4781

cgvc: Finished line minimization    6.  Mean atomic displacement =    0.0026

                     ====================================
                        Begin CG opt. move =     14
                     ====================================

outcell: Unit cell vectors (Ang):
       14.708424    0.000000    0.000000
        0.000000   14.994000    0.000000
        0.000000    0.000000   10.000000

outcell: Cell vector modules (Ang)   :   14.708424   14.994000   10.000000
outcell: Cell angles (23,13,12) (deg):     90.0000     90.0000     90.0000
outcell: Cell volume (Ang**3)        :   2205.3811
<dSpData1D:S at geom step 14
  <sparsity:sparsity for geom step 14
    nrows_g=116 nrows=116 sparsity=.9951 nnzs=13390, refcount: 7>
  <dData1D:(new from dSpData1D) n=13390, refcount: 1>
refcount: 1>
new_DM -- step:    15
Re-using DM from previous geometries...
Number of DMs in history: 1
 DM extrapolation coefficients: 
1   1.00000
New DM after history re-use:
<dSpData2D:SpM extrapolated using coords
  <sparsity:sparsity for geom step 14
    nrows_g=116 nrows=116 sparsity=.9951 nnzs=13390, refcount: 9>
  <dData2D:(temp array for extrapolation) n=13390 m=1, refcount: 1>
refcount: 1>
No. of atoms with KB's overlaping orbs in proc 0. Max # of overlaps:      12     110

InitMesh: MESH = 160 x 160 x 108 = 2764800
InitMesh: Mesh cutoff (required, used) =   300.000   314.707 Ry
New grid distribution [1]: sub = 2

        iscf     Eharris(eV)        E_KS(eV)     FreeEng(eV)     dDmax    Ef(eV) dHmax(eV)
   scf:    1    -1506.466558    -1506.478649    -1506.478649  0.002662 -3.940875  0.022796
   scf:    2    -1506.478025    -1506.478478    -1506.478478  0.002112 -3.932083  0.060498
   scf:    3    -1506.478736    -1506.478682    -1506.478682  0.001431 -3.938273  0.001933
   scf:    4    -1506.478682    -1506.478682    -1506.478682  0.000045 -3.938086  0.001024
   scf:    5    -1506.478682    -1506.478682    -1506.478682  0.000039 -3.937883  0.000379

SCF Convergence by DM+H criterion
max |DM_out - DM_in|         :     0.0000388131
max |H_out - H_in|      (eV) :     0.0003794727
SCF cycle converged after 5 iterations

Using DM_out to compute the final energy and forces
No. of atoms with KB's overlaping orbs in proc 0. Max # of overlaps:      12     110

siesta: E_KS(eV) =            -1506.4787

siesta: Atomic forces (eV/Ang):
----------------------------------------
   Tot    0.001732   -0.001342   -0.000000
----------------------------------------
   Max    0.059921
   Res    0.021399    sqrt( Sum f_i^2 / 3N )
----------------------------------------
   Max    0.059921    constrained

Stress tensor Voigt[x,y,z,yz,xz,xy] (kbar):        0.01        0.14       -0.01       -0.00       -0.00        0.11
(Free)E + p*V (eV/cell)    -1506.5457
Target enthalpy (eV/cell)    -1506.4787

                     ====================================
                        Begin CG opt. move =     15
                     ====================================

outcell: Unit cell vectors (Ang):
       14.708424    0.000000    0.000000
        0.000000   14.994000    0.000000
        0.000000    0.000000   10.000000

outcell: Cell vector modules (Ang)   :   14.708424   14.994000   10.000000
outcell: Cell angles (23,13,12) (deg):     90.0000     90.0000     90.0000
outcell: Cell volume (Ang**3)        :   2205.3811
<dSpData1D:S at geom step 15
  <sparsity:sparsity for geom step 15
    nrows_g=116 nrows=116 sparsity=.9951 nnzs=13390, refcount: 7>
  <dData1D:(new from dSpData1D) n=13390, refcount: 1>
refcount: 1>
new_DM -- step:    16
Re-using DM from previous geometries...
Number of DMs in history: 1
 DM extrapolation coefficients: 
1   1.00000
New DM after history re-use:
<dSpData2D:SpM extrapolated using coords
  <sparsity:sparsity for geom step 15
    nrows_g=116 nrows=116 sparsity=.9951 nnzs=13390, refcount: 9>
  <dData2D:(temp array for extrapolation) n=13390 m=1, refcount: 1>
refcount: 1>
No. of atoms with KB's overlaping orbs in proc 0. Max # of overlaps:      12     110

InitMesh: MESH = 160 x 160 x 108 = 2764800
InitMesh: Mesh cutoff (required, used) =   300.000   314.707 Ry
New grid distribution [1]: sub = 2

        iscf     Eharris(eV)        E_KS(eV)     FreeEng(eV)     dDmax    Ef(eV) dHmax(eV)
   scf:    1    -1506.459082    -1506.478743    -1506.478743  0.004332 -3.913951  0.036194
   scf:    2    -1506.477177    -1506.478315    -1506.478315  0.003386 -3.900188  0.095772
   scf:    3    -1506.478962    -1506.478825    -1506.478825  0.002293 -3.909850  0.003094
   scf:    4    -1506.478826    -1506.478826    -1506.478826  0.000071 -3.909556  0.001525
   scf:    5    -1506.478826    -1506.478826    -1506.478826  0.000059 -3.909242  0.000577

SCF Convergence by DM+H criterion
max |DM_out - DM_in|         :     0.0000592836
max |H_out - H_in|      (eV) :     0.0005772957
SCF cycle converged after 5 iterations

Using DM_out to compute the final energy and forces
No. of atoms with KB's overlaping orbs in proc 0. Max # of overlaps:      12     110

siesta: E_KS(eV) =            -1506.4788

siesta: Atomic forces (eV/Ang):
----------------------------------------
   Tot    0.001182   -0.001966    0.000000
----------------------------------------
   Max    0.153841
   Res    0.038243    sqrt( Sum f_i^2 / 3N )
----------------------------------------
   Max    0.153841    constrained

Stress tensor Voigt[x,y,z,yz,xz,xy] (kbar):       -0.02       -0.08       -0.01       -0.00        0.00       -0.04
(Free)E + p*V (eV/cell)    -1506.4333
Target enthalpy (eV/cell)    -1506.4788

                     ====================================
                        Begin CG opt. move =     16
                     ====================================

outcell: Unit cell vectors (Ang):
       14.708424    0.000000    0.000000
        0.000000   14.994000    0.000000
        0.000000    0.000000   10.000000

outcell: Cell vector modules (Ang)   :   14.708424   14.994000   10.000000
outcell: Cell angles (23,13,12) (deg):     90.0000     90.0000     90.0000
outcell: Cell volume (Ang**3)        :   2205.3811
<dSpData1D:S at geom step 16
  <sparsity:sparsity for geom step 16
    nrows_g=116 nrows=116 sparsity=.9951 nnzs=13390, refcount: 7>
  <dData1D:(new from dSpData1D) n=13390, refcount: 1>
refcount: 1>
new_DM -- step:    17
Re-using DM from previous geometries...
Number of DMs in history: 1
 DM extrapolation coefficients: 
1   1.00000
New DM after history re-use:
<dSpData2D:SpM extrapolated using coords
  <sparsity:sparsity for geom step 16
    nrows_g=116 nrows=116 sparsity=.9951 nnzs=13390, refcount: 9>
  <dData2D:(temp array for extrapolation) n=13390 m=1, refcount: 1>
refcount: 1>
No. of atoms with KB's overlaping orbs in proc 0. Max # of overlaps:      12     110

InitMesh: MESH = 160 x 160 x 108 = 2764800
InitMesh: Mesh cutoff (required, used) =   300.000   314.707 Ry
New grid distribution [1]: sub = 2

        iscf     Eharris(eV)        E_KS(eV)     FreeEng(eV)     dDmax    Ef(eV) dHmax(eV)
   scf:    1    -1506.485473    -1506.478869    -1506.478869  0.001473 -3.917140  0.011832
   scf:    2    -1506.478695    -1506.478822    -1506.478822  0.001142 -3.921990  0.031697
   scf:    3    -1506.478894    -1506.478878    -1506.478878  0.000772 -3.918578  0.001091
   scf:    4    -1506.478879    -1506.478878    -1506.478878  0.000025 -3.918689  0.000589

SCF Convergence by DM+H criterion
max |DM_out - DM_in|         :     0.0000250361
max |H_out - H_in|      (eV) :     0.0005886429
SCF cycle converged after 4 iterations

Using DM_out to compute the final energy and forces
No. of atoms with KB's overlaping orbs in proc 0. Max # of overlaps:      12     110

siesta: E_KS(eV) =            -1506.4789

siesta: Atomic forces (eV/Ang):
----------------------------------------
   Tot    0.001371   -0.001887   -0.000000
----------------------------------------
   Max    0.120718
   Res    0.029576    sqrt( Sum f_i^2 / 3N )
----------------------------------------
   Max    0.120718    constrained

Stress tensor Voigt[x,y,z,yz,xz,xy] (kbar):       -0.01       -0.00       -0.01        0.00        0.00        0.01
(Free)E + p*V (eV/cell)    -1506.4713
Target enthalpy (eV/cell)    -1506.4789

cgvc: Finished line minimization    7.  Mean atomic displacement =    0.0054

                     ====================================
                        Begin CG opt. move =     17
                     ====================================

outcell: Unit cell vectors (Ang):
       14.708424    0.000000    0.000000
        0.000000   14.994000    0.000000
        0.000000    0.000000   10.000000

outcell: Cell vector modules (Ang)   :   14.708424   14.994000   10.000000
outcell: Cell angles (23,13,12) (deg):     90.0000     90.0000     90.0000
outcell: Cell volume (Ang**3)        :   2205.3811
<dSpData1D:S at geom step 17
  <sparsity:sparsity for geom step 17
    nrows_g=116 nrows=116 sparsity=.9951 nnzs=13390, refcount: 7>
  <dData1D:(new from dSpData1D) n=13390, refcount: 1>
refcount: 1>
new_DM -- step:    18
Re-using DM from previous geometries...
Number of DMs in history: 1
 DM extrapolation coefficients: 
1   1.00000
New DM after history re-use:
<dSpData2D:SpM extrapolated using coords
  <sparsity:sparsity for geom step 17
    nrows_g=116 nrows=116 sparsity=.9951 nnzs=13390, refcount: 9>
  <dData2D:(temp array for extrapolation) n=13390 m=1, refcount: 1>
refcount: 1>
No. of atoms with KB's overlaping orbs in proc 0. Max # of overlaps:      12     110

InitMesh: MESH = 160 x 160 x 108 = 2764800
InitMesh: Mesh cutoff (required, used) =   300.000   314.707 Ry
New grid distribution [1]: sub = 2

        iscf     Eharris(eV)        E_KS(eV)     FreeEng(eV)     dDmax    Ef(eV) dHmax(eV)
   scf:    1    -1506.460047    -1506.478514    -1506.478514  0.004149 -3.916967  0.069521
   scf:    2    -1506.476550    -1506.478024    -1506.478024  0.002764 -3.902856  0.116500
   scf:    3    -1506.478889    -1506.478687    -1506.478687  0.001817 -3.912274  0.011029
   scf:    4    -1506.478692    -1506.478689    -1506.478689  0.000090 -3.911916  0.005980
   scf:    5    -1506.478692    -1506.478691    -1506.478691  0.000103 -3.911569  0.000731
   scf:    6    -1506.478691    -1506.478691    -1506.478691  0.000016 -3.911572  0.000334

SCF Convergence by DM+H criterion
max |DM_out - DM_in|         :     0.0000161653
max |H_out - H_in|      (eV) :     0.0003338858
SCF cycle converged after 6 iterations

Using DM_out to compute the final energy and forces
No. of atoms with KB's overlaping orbs in proc 0. Max # of overlaps:      12     110

siesta: E_KS(eV) =            -1506.4787

siesta: Atomic forces (eV/Ang):
----------------------------------------
   Tot    0.000490   -0.001325    0.000000
----------------------------------------
   Max    0.169167
   Res    0.045441    sqrt( Sum f_i^2 / 3N )
----------------------------------------
   Max    0.169167    constrained

Stress tensor Voigt[x,y,z,yz,xz,xy] (kbar):       -0.10       -0.12       -0.01        0.00        0.00       -0.01
(Free)E + p*V (eV/cell)    -1506.3743
Target enthalpy (eV/cell)    -1506.4787

                     ====================================
                        Begin CG opt. move =     18
                     ====================================

outcell: Unit cell vectors (Ang):
       14.708424    0.000000    0.000000
        0.000000   14.994000    0.000000
        0.000000    0.000000   10.000000

outcell: Cell vector modules (Ang)   :   14.708424   14.994000   10.000000
outcell: Cell angles (23,13,12) (deg):     90.0000     90.0000     90.0000
outcell: Cell volume (Ang**3)        :   2205.3811
<dSpData1D:S at geom step 18
  <sparsity:sparsity for geom step 18
    nrows_g=116 nrows=116 sparsity=.9951 nnzs=13390, refcount: 7>
  <dData1D:(new from dSpData1D) n=13390, refcount: 1>
refcount: 1>
new_DM -- step:    19
Re-using DM from previous geometries...
Number of DMs in history: 1
 DM extrapolation coefficients: 
1   1.00000
New DM after history re-use:
<dSpData2D:SpM extrapolated using coords
  <sparsity:sparsity for geom step 18
    nrows_g=116 nrows=116 sparsity=.9951 nnzs=13390, refcount: 9>
  <dData2D:(temp array for extrapolation) n=13390 m=1, refcount: 1>
refcount: 1>
No. of atoms with KB's overlaping orbs in proc 0. Max # of overlaps:      12     110

InitMesh: MESH = 160 x 160 x 108 = 2764800
InitMesh: Mesh cutoff (required, used) =   300.000   314.707 Ry
New grid distribution [1]: sub = 2

        iscf     Eharris(eV)        E_KS(eV)     FreeEng(eV)     dDmax    Ef(eV) dHmax(eV)
   scf:    1    -1506.489360    -1506.479063    -1506.479063  0.002371 -3.912683  0.039802
   scf:    2    -1506.478432    -1506.478906    -1506.478906  0.001577 -3.920470  0.066141
   scf:    3    -1506.479184    -1506.479119    -1506.479119  0.001033 -3.915254  0.006349
   scf:    4    -1506.479121    -1506.479120    -1506.479120  0.000052 -3.915445  0.003445
   scf:    5    -1506.479121    -1506.479121    -1506.479121  0.000060 -3.915631  0.000413

SCF Convergence by DM+H criterion
max |DM_out - DM_in|         :     0.0000595508
max |H_out - H_in|      (eV) :     0.0004128046
SCF cycle converged after 5 iterations

Using DM_out to compute the final energy and forces
No. of atoms with KB's overlaping orbs in proc 0. Max # of overlaps:      12     110

siesta: E_KS(eV) =            -1506.4791

siesta: Atomic forces (eV/Ang):
----------------------------------------
   Tot    0.000989   -0.001762    0.000000
----------------------------------------
   Max    0.024385
   Res    0.009670    sqrt( Sum f_i^2 / 3N )
----------------------------------------
   Max    0.024385    constrained

Stress tensor Voigt[x,y,z,yz,xz,xy] (kbar):       -0.05       -0.05       -0.01        0.00       -0.00        0.00
(Free)E + p*V (eV/cell)    -1506.4299
Target enthalpy (eV/cell)    -1506.4791

outcoor: Relaxed atomic coordinates (Ang):                  
    1.24428140    0.70070270    0.00000000   1       1  C
    2.20942616    1.26464042    0.00000000   2       2  H
    0.01944008    1.41893583   -0.00000000   1       3  C
    0.00045092    2.53575174    0.00000000   2       4  H
   -1.20362556    0.69475310   -0.00000000   1       5  C
   -2.72616626    1.57374729   -0.00000000   3       6  Cl
   -1.21919934   -0.72653116    0.00000000   1       7  C
   -2.19590471   -1.26846399    0.00000000   2       8  H
    0.01535739   -1.42792936   -0.00000000   1       9  C
    0.00941819   -2.54571418   -0.00000000   2      10  H
    1.24734723   -0.72014198    0.00000000   1      11  C
    2.21507062   -1.27877235   -0.00000000   2      12  H

coxmol: Writing XMOL coordinates into file optimization.xyz                                                                                                                                                                                                                    

siesta: Program's energy decomposition (eV):
siesta: Ebs     =      -449.090736
siesta: Eions   =      2635.484392
siesta: Ena     =       792.678162
siesta: Ekin    =       866.781275
siesta: Enl     =        21.654185
siesta: Eso     =         0.000000
siesta: Edftu   =         0.000000
siesta: DEna    =       -45.153325
siesta: DUscf   =         4.425494
siesta: DUext   =         0.000000
siesta: Ex      =      -469.240112
siesta: Ec      =       -42.140407
siesta: Exc     =      -511.380519
siesta: EbV     =         0.000000
siesta: eta*DQ  =         0.000000
siesta: Emadel  =         0.000000
siesta: Emeta   =         0.000000
siesta: Emolmec =         0.000000
siesta: Ekinion =         0.000000
siesta: Eharris =     -1506.479121
siesta: Etot    =     -1506.479121
siesta: FreeEng =     -1506.479121

siesta: Final energy (eV):
siesta:  Band Struct. =    -449.090736
siesta:       Kinetic =     866.781275
siesta:       Hartree =    2718.419411
siesta:         Edftu =       0.000000
siesta:       Eso     =       0.000000
siesta:    Ext. field =       0.000000
siesta:         Exch. =    -469.240112
siesta:         Corr. =     -42.140407
siesta:     Bulk bias =       0.000000
siesta:   Exch.-corr. =    -511.380519
siesta:  Ion-electron =   -6211.999581
siesta:       Ion-ion =    1631.700294
siesta:       Ekinion =       0.000000
siesta: D3 dispersion =       0.000000
siesta:         Total =   -1506.479121
siesta:         Fermi =      -3.915631

siesta: Stress tensor (static) (eV/Ang**3):
siesta:    -0.000030    0.000001   -0.000000
siesta:     0.000001   -0.000033    0.000000
siesta:    -0.000000    0.000000   -0.000003

siesta: Cell volume =       2205.381095 Ang**3

siesta: Pressure (static):
siesta:                Solid            Molecule  Units
siesta:           0.00000024         -0.00000001  Ry/Bohr**3
siesta:           0.00002232         -0.00000057  eV/Ang**3
siesta:           0.03576185         -0.00091937  kBar
(Free)E+ p_basis*V_orbitals  =       -1505.545745
(Free)Eharris+ p_basis*V_orbitals  =       -1505.545745

siesta: Electric dipole (a.u.)  =    0.471127   -0.270927    0.000000
siesta: Electric dipole (Debye) =    1.197486   -0.688627    0.000000

cite: Please see "optimization.bib" for an exhaustive BiBTeX file.
cite: Please clearly indicate Siesta version in published work: 5.2.1
cite: This calculation has made use of the following articles
cite: which are encouraged to be cited in a published work.
        Primary SIESTA paper
          DOI: www.doi.org/10.1088/0953-8984/14/11/302


timer: Elapsed wall time (sec) =     289.707
timer: CPU execution times (sec):

Routine            Calls   Time/call    Tot.time        %
siesta                 1     432.611     432.611   100.00
Setup                  1       1.172       1.172     0.27
bands                  1       0.000       0.000     0.00
KSV_init               1       0.000       0.000     0.00
IterGeom              19      22.707     431.434    99.73
geom_init             19       2.855      54.247    12.54
state_init            19       0.052       0.988     0.23
hsparse               19       0.000       0.005     0.00
overlap               19       0.051       0.975     0.23
Setup_H0              19       1.572      29.861     6.90
naefs                 38       0.000       0.002     0.00
dnaefs                38       0.000       0.001     0.00
MolMec                38       0.000       0.000     0.00
kinefsm               38       0.027       1.023     0.24
nlefsm                38       0.098       3.741     0.86
DHSCF_Init            19       1.333      25.321     5.85
DHSCF1                19       0.035       0.670     0.15
InitMesh              19       0.035       0.670     0.15
INITMESH              19       0.000       0.000     0.00
DHSCF2                19       1.297      24.651     5.70
REMESH                19       0.063       1.194     0.28
REORD                645       0.003       2.097     0.48
PHION                 19       0.942      17.892     4.14
COMM_BSC             777       0.002       1.930     0.45
POISON               199       0.150      29.855     6.90
fft                  398       0.060      23.788     5.50
setup_H              161       2.121     341.495    78.94
DHSCF                180       2.199     395.874    91.51
DHSCF3               180       2.025     364.505    84.26
rhoofd               180       1.055     189.883    43.89
XC                   180       0.448      80.589    18.63
GXC-CellXC           180       0.434      78.126    18.06
gridxc@cellXC        180       0.434      78.125    18.06
vmat                 180       0.239      43.047     9.95
IterSCF              142       2.269     322.210    74.48
compute_dm           142       0.029       4.053     0.94
diagon               142       0.028       4.014     0.93
r-eigvec             142       0.019       2.635     0.61
r-buildHS            142       0.000       0.004     0.00
rdiag                142       0.019       2.630     0.61
rdiag1               142       0.002       0.217     0.05
rdiag2               142       0.002       0.336     0.08
rdiag3               142       0.014       2.019     0.47
rdiag4               142       0.000       0.049     0.01
r-buildD             142       0.009       1.332     0.31
MIXER                123       0.000       0.009     0.00
PostSCF               19       2.893      54.967    12.71
FINAL_HF              19       2.893      54.966    12.71
DHSCF4                19       1.651      31.367     7.25
dfscf                 19       1.469      27.916     6.45
overfsm               19       0.002       0.047     0.01
writeHSX              19       0.000       0.004     0.00
state_analysis        19       0.000       0.002     0.00
siesta_move           19       0.000       0.005     0.00
Analysis               1       0.001       0.001     0.00
optical                1       0.000       0.000     0.00
  

>> End of run:  26-MAY-2025  16:57:23
Job completed
Job completed
